0.112741 
0.112331 
0.112248 
0.111373 
0.111325 
0.111441 
0.113191 
0.112435 
0.112542 
0.113737 
0.113553 
0.114312 
0.114394 
0.115078 
0.113647 
0.114757 
0.114693 
0.114424 
0.115970 
0.115247 
0.115476 
0.116648 
0.116602 
0.116569 
0.117864 
0.118148 
0.115638 
0.116012 
0.115501 
0.115736 
0.087797 
0.086848 
0.087893 
0.087796 
0.086755 
0.088374 
0.086292 
0.084233 
0.084684 
0.085467 
0.084363 
0.087622 
0.088282 
0.088276 
0.086915 
0.086715 
0.089740 
0.090153 
0.091658 
0.091547 
0.090919 
0.094678 
0.094758 
0.095921 
0.095544 
0.094729 
0.098308 
0.097189 
0.097660 
0.097532 
