0.064536 
0.064346 
0.064423 
0.064346 
0.064354 
0.064314 
0.064329 
0.064339 
0.064313 
0.064337 
0.064386 
0.064335 
0.064440 
0.064360 
0.064342 
0.064261 
0.067085 
0.067407 
0.067292 
0.067231 
0.067423 
0.066601 
0.066374 
0.066467 
0.066516 
0.066522 
0.066722 
0.066828 
0.066730 
0.066668 
0.074578 
0.080803 
0.083120 
0.078957 
0.078306 
0.078233 
0.079054 
0.079127 
0.078889 
0.078809 
0.079187 
0.078502 
0.078370 
0.077945 
0.078311 
0.078386 
0.080086 
0.080373 
0.080434 
0.080250 
0.080082 
0.078933 
0.078593 
0.078996 
0.078766 
0.079013 
0.079949 
0.080215 
0.079763 
0.080363 
