0.109534 
0.114013 
0.113983 
0.113365 
0.114837 
0.114909 
0.115170 
0.116616 
0.116248 
0.116490 
0.116056 
0.114248 
0.112975 
0.114635 
0.114732 
0.113223 
0.115566 
0.115992 
0.114556 
0.115100 
0.115280 
0.113833 
0.113246 
0.113323 
0.113013 
0.113062 
0.112100 
0.111055 
0.112566 
0.112327 
0.084348 
0.082468 
0.081894 
0.082695 
0.082580 
0.081848 
0.083094 
0.084002 
0.083796 
0.084558 
0.085067 
0.084809 
0.084931 
0.084035 
0.084351 
0.084926 
0.084701 
0.086207 
0.085390 
0.086010 
0.085728 
0.085920 
0.086304 
0.085452 
0.086426 
0.086155 
0.087551 
0.087730 
0.088590 
0.088046 
