0.127073 
0.117103 
0.116700 
0.117101 
0.117171 
0.118484 
0.115300 
0.116834 
0.117174 
0.116379 
0.116970 
0.114851 
0.115348 
0.114866 
0.115409 
0.114562 
0.115987 
0.116147 
0.115795 
0.114970 
0.115531 
0.109997 
0.109362 
0.109793 
0.109593 
0.109459 
0.114274 
0.115523 
0.114663 
0.115812 
0.115828 
0.103955 
0.101203 
0.101902 
0.101844 
0.102144 
0.094442 
0.095034 
0.094586 
0.094493 
0.094496 
0.091057 
0.090501 
0.089618 
0.090247 
0.089111 
0.088945 
0.089211 
0.087692 
0.088626 
0.088096 
0.093515 
0.093174 
0.093607 
0.093082 
0.093533 
0.089729 
0.089037 
0.089540 
0.089696 
