0.066714 
0.065239 
0.065146 
0.065098 
0.065179 
0.064985 
0.064581 
0.064531 
0.064381 
0.064430 
0.064356 
0.065185 
0.065298 
0.065271 
0.065308 
0.065184 
0.064719 
0.064788 
0.064715 
0.064648 
0.064722 
0.065327 
0.065373 
0.065365 
0.065533 
0.065435 
0.065908 
0.065787 
0.065722 
0.065806 
0.080031 
0.080587 
0.081010 
0.081216 
0.081264 
0.081066 
0.078921 
0.078903 
0.078626 
0.078561 
0.078846 
0.078685 
0.078378 
0.078372 
0.078662 
0.078348 
0.077367 
0.077501 
0.077464 
0.077390 
0.077425 
0.077717 
0.077824 
0.077378 
0.077214 
0.077588 
0.075327 
0.075419 
0.075061 
0.075093 
