0.116189 
0.115868 
0.115504 
0.115928 
0.115662 
0.116999 
0.123319 
0.123540 
0.122213 
0.123815 
0.123043 
0.115337 
0.115616 
0.116050 
0.116245 
0.114904 
0.107504 
0.107047 
0.107178 
0.106781 
0.106515 
0.110597 
0.110121 
0.109536 
0.110198 
0.110699 
0.111065 
0.109982 
0.110169 
0.110590 
0.088796 
0.086527 
0.083860 
0.085149 
0.085180 
0.084502 
0.083906 
0.083668 
0.083944 
0.084336 
0.084243 
0.084884 
0.084660 
0.085105 
0.084541 
0.085659 
0.083081 
0.082827 
0.081676 
0.082684 
0.082123 
0.084608 
0.084404 
0.084576 
0.085044 
0.084392 
0.083021 
0.083980 
0.083644 
0.083116 
