0.065967 
0.066024 
0.066014 
0.066066 
0.066084 
0.066038 
0.065351 
0.065481 
0.065376 
0.065551 
0.065352 
0.064865 
0.064770 
0.064708 
0.064799 
0.064665 
0.064446 
0.064449 
0.064336 
0.064408 
0.064393 
0.064141 
0.064112 
0.064095 
0.064164 
0.064068 
0.064270 
0.064325 
0.064244 
0.064319 
0.075267 
0.076006 
0.075686 
0.076240 
0.075724 
0.075939 
0.078109 
0.078690 
0.078881 
0.078490 
0.078234 
0.076114 
0.076033 
0.076347 
0.075944 
0.076291 
0.073890 
0.073296 
0.073202 
0.073301 
0.073372 
0.071543 
0.071409 
0.071471 
0.071477 
0.071427 
0.070170 
0.070071 
0.069959 
0.070037 
