0.064431 
0.064090 
0.064097 
0.064081 
0.064113 
0.064095 
0.064422 
0.064395 
0.064329 
0.064368 
0.064236 
0.064513 
0.064476 
0.064546 
0.064407 
0.064501 
0.064467 
0.064376 
0.064313 
0.064309 
0.064368 
0.066461 
0.066777 
0.066724 
0.066711 
0.066741 
0.064737 
0.064381 
0.064530 
0.064498 
0.064251 
0.067481 
0.067887 
0.067958 
0.067971 
0.067975 
0.071433 
0.071676 
0.071730 
0.071819 
0.071816 
0.073880 
0.074077 
0.074175 
0.074081 
0.074099 
0.074826 
0.075106 
0.075343 
0.075156 
0.075027 
0.072430 
0.072042 
0.071939 
0.071880 
0.072074 
0.074531 
0.074543 
0.074562 
0.074720 
